# Region type : patch Inlet
# Faces  :    288
# Area   :    1.406185e+00
# Time        	sum(phi)
47            	-5.000000e-01
47.0097       	-5.000000e+00
47.0191       	-5.000000e+00
47.0284       	-5.000000e+00
47.0376       	-5.000000e+00
47.0469       	-5.000000e+00
47.0562       	-5.000000e+00
47.0657       	-5.000000e+00
47.0752       	-5.000000e+00
47.0848       	-5.000000e+00
47.0944       	-5.000000e+00
47.1038       	-5.000000e+00
47.1132       	-5.000000e+00
47.1227       	-5.000000e+00
47.132        	-5.000000e+00
47.1413       	-5.000000e+00
47.1508       	-5.000000e+00
47.1603       	-5.000000e+00
47.1701       	-5.000000e+00
47.1797       	-5.000000e+00
47.1892       	-5.000000e+00
47.1985       	-5.000000e+00
47.2077       	-5.000000e+00
47.2169       	-5.000000e+00
47.2261       	-5.000000e+00
47.2353       	-5.000000e+00
47.2446       	-5.000000e+00
47.2539       	-5.000000e+00
47.2633       	-5.000000e+00
47.2729       	-5.000000e+00
47.2823       	-5.000000e+00
47.2917       	-5.000000e+00
47.3009       	-5.000000e+00
47.3099       	-5.000000e+00
47.319        	-5.000000e+00
47.3281       	-5.000000e+00
47.3373       	-5.000000e+00
47.3466       	-5.000000e+00
47.3561       	-5.000000e+00
47.3656       	-5.000000e+00
47.375        	-5.000000e+00
47.3845       	-5.000000e+00
47.3938       	-5.000000e+00
47.4032       	-5.000000e+00
47.4125       	-5.000000e+00
47.4218       	-5.000000e+00
47.4313       	-5.000000e+00
47.4409       	-5.000000e+00
47.4506       	-5.000000e+00
47.46         	-5.000000e+00
47.4693       	-5.000000e+00
47.4787       	-5.000000e+00
47.4878       	-5.000000e+00
47.497        	-5.000000e+00
47.5061       	-5.000000e+00
47.5152       	-5.000000e+00
47.5246       	-5.000000e+00
47.5339       	-5.000000e+00
47.5432       	-5.000000e+00
47.5527       	-5.000000e+00
47.562        	-5.000000e+00
47.5714       	-5.000000e+00
47.5805       	-5.000000e+00
47.5896       	-5.000000e+00
47.5987       	-5.000000e+00
47.6078       	-5.000000e+00
47.6172       	-5.000000e+00
47.6265       	-5.000000e+00
47.6359       	-5.000000e+00
47.6452       	-5.000000e+00
47.6545       	-5.000000e+00
47.6639       	-5.000000e+00
47.6732       	-5.000000e+00
47.6825       	-5.000000e+00
47.6916       	-5.000000e+00
47.7007       	-5.000000e+00
47.7095       	-5.000000e+00
47.718        	-5.000000e+00
47.7266       	-5.000000e+00
47.7349       	-5.000000e+00
47.7424       	-5.000000e+00
47.7492       	-5.000000e+00
47.7555       	-5.000000e+00
47.7614       	-5.000000e+00
47.7674       	-5.000000e+00
47.7734       	-5.000000e+00
47.7793       	-5.000000e+00
47.7855       	-5.000000e+00
47.7916       	-5.000000e+00
47.7977       	-5.000000e+00
47.8039       	-5.000000e+00
47.8098       	-5.000000e+00
47.8154       	-5.000000e+00
47.8205       	-5.000000e+00
47.8254       	-5.000000e+00
47.8301       	-5.000000e+00
47.8346       	-5.000000e+00
47.8389       	-5.000000e+00
47.8432       	-5.000000e+00
47.8473       	-5.000000e+00
47.8513       	-5.000000e+00
47.8553       	-5.000000e+00
47.8593       	-5.000000e+00
47.8632       	-5.000000e+00
47.8672       	-5.000000e+00
47.8711       	-5.000000e+00
47.875        	-5.000000e+00
47.8789       	-5.000000e+00
47.8828       	-5.000000e+00
47.8868       	-5.000000e+00
47.8909       	-5.000000e+00
47.8949       	-5.000000e+00
47.899        	-5.000000e+00
47.903        	-5.000000e+00
47.9072       	-5.000000e+00
47.9114       	-5.000000e+00
47.9156       	-5.000000e+00
47.9199       	-5.000000e+00
47.9241       	-5.000000e+00
47.9285       	-5.000000e+00
47.933        	-5.000000e+00
47.9375       	-5.000000e+00
47.9419       	-5.000000e+00
47.9464       	-5.000000e+00
47.9509       	-5.000000e+00
47.9553       	-5.000000e+00
47.9598       	-5.000000e+00
47.9643       	-5.000000e+00
47.9687       	-5.000000e+00
47.9732       	-5.000000e+00
47.9777       	-5.000000e+00
47.9821       	-5.000000e+00
47.9866       	-5.000000e+00
47.9911       	-5.000000e+00
47.9955       	-5.000000e+00
48            	-5.000000e+00
48.0048       	-5.000000e+00
48.0096       	-5.000000e+00
48.0144       	-5.000000e+00
48.0191       	-5.000000e+00
48.0239       	-5.000000e+00
48.0287       	-5.000000e+00
48.0335       	-5.000000e+00
48.0383       	-5.000000e+00
48.0432       	-5.000000e+00
48.048        	-5.000000e+00
48.0529       	-5.000000e+00
48.0576       	-5.000000e+00
48.0622       	-5.000000e+00
48.0667       	-5.000000e+00
48.071        	-5.000000e+00
48.0752       	-5.000000e+00
48.0795       	-5.000000e+00
48.0838       	-5.000000e+00
48.0881       	-5.000000e+00
48.0924       	-5.000000e+00
48.0968       	-5.000000e+00
48.1012       	-5.000000e+00
48.1055       	-5.000000e+00
48.1099       	-5.000000e+00
48.1138       	-5.000000e+00
48.1176       	-5.000000e+00
48.1213       	-5.000000e+00
48.125        	-5.000000e+00
48.1287       	-5.000000e+00
48.1323       	-5.000000e+00
48.136        	-5.000000e+00
48.1396       	-5.000000e+00
48.1432       	-5.000000e+00
48.1467       	-5.000000e+00
48.1503       	-5.000000e+00
48.1538       	-5.000000e+00
48.1573       	-5.000000e+00
48.1608       	-5.000000e+00
48.1643       	-5.000000e+00
48.1677       	-5.000000e+00
48.1711       	-5.000000e+00
48.1745       	-5.000000e+00
48.1779       	-5.000000e+00
48.1813       	-5.000000e+00
48.1847       	-5.000000e+00
48.188        	-5.000000e+00
48.1913       	-5.000000e+00
48.1945       	-5.000000e+00
48.1976       	-5.000000e+00
48.2005       	-5.000000e+00
48.2034       	-5.000000e+00
48.2062       	-5.000000e+00
48.2091       	-5.000000e+00
48.2121       	-5.000000e+00
48.2151       	-5.000000e+00
48.2181       	-5.000000e+00
48.2212       	-5.000000e+00
48.2242       	-5.000000e+00
48.2271       	-5.000000e+00
48.2297       	-5.000000e+00
48.2323       	-5.000000e+00
48.2349       	-5.000000e+00
48.2375       	-5.000000e+00
48.2402       	-5.000000e+00
48.243        	-5.000000e+00
48.2459       	-5.000000e+00
48.2489       	-5.000000e+00
48.2519       	-5.000000e+00
48.255        	-5.000000e+00
48.2582       	-5.000000e+00
48.2613       	-5.000000e+00
48.2644       	-5.000000e+00
48.2676       	-5.000000e+00
48.2708       	-5.000000e+00
48.2741       	-5.000000e+00
48.2774       	-5.000000e+00
48.2808       	-5.000000e+00
48.2842       	-5.000000e+00
48.2876       	-5.000000e+00
48.2912       	-5.000000e+00
48.2948       	-5.000000e+00
48.2984       	-5.000000e+00
48.302        	-5.000000e+00
48.3057       	-5.000000e+00
48.3094       	-5.000000e+00
48.3132       	-5.000000e+00
48.317        	-5.000000e+00
48.3209       	-5.000000e+00
48.3249       	-5.000000e+00
48.3288       	-5.000000e+00
48.3328       	-5.000000e+00
48.337        	-5.000000e+00
48.3412       	-5.000000e+00
48.3454       	-5.000000e+00
48.3496       	-5.000000e+00
48.354        	-5.000000e+00
48.3585       	-5.000000e+00
48.363        	-5.000000e+00
48.3676       	-5.000000e+00
48.3723       	-5.000000e+00
48.377        	-5.000000e+00
48.3818       	-5.000000e+00
48.3867       	-5.000000e+00
48.3918       	-5.000000e+00
48.3968       	-5.000000e+00
48.4019       	-5.000000e+00
48.4068       	-5.000000e+00
48.4116       	-5.000000e+00
48.4164       	-5.000000e+00
48.4211       	-5.000000e+00
48.4258       	-5.000000e+00
48.4304       	-5.000000e+00
48.4351       	-5.000000e+00
48.4397       	-5.000000e+00
48.4444       	-5.000000e+00
48.449        	-5.000000e+00
48.4536       	-5.000000e+00
48.4581       	-5.000000e+00
48.4627       	-5.000000e+00
48.4672       	-5.000000e+00
48.4717       	-5.000000e+00
48.4762       	-5.000000e+00
48.4807       	-5.000000e+00
48.4852       	-5.000000e+00
48.4897       	-5.000000e+00
48.4941       	-5.000000e+00
48.4986       	-5.000000e+00
48.503        	-5.000000e+00
48.5074       	-5.000000e+00
48.5118       	-5.000000e+00
48.5162       	-5.000000e+00
48.5206       	-5.000000e+00
48.525        	-5.000000e+00
48.5293       	-5.000000e+00
48.5337       	-5.000000e+00
48.5381       	-5.000000e+00
48.5424       	-5.000000e+00
48.5468       	-5.000000e+00
48.5511       	-5.000000e+00
48.5555       	-5.000000e+00
48.5598       	-5.000000e+00
48.5642       	-5.000000e+00
48.5686       	-5.000000e+00
48.5729       	-5.000000e+00
48.5772       	-5.000000e+00
48.5815       	-5.000000e+00
48.5859       	-5.000000e+00
48.5902       	-5.000000e+00
48.5945       	-5.000000e+00
48.5988       	-5.000000e+00
48.6031       	-5.000000e+00
48.6074       	-5.000000e+00
48.6117       	-5.000000e+00
48.616        	-5.000000e+00
48.6203       	-5.000000e+00
48.6245       	-5.000000e+00
48.6288       	-5.000000e+00
48.6331       	-5.000000e+00
48.6373       	-5.000000e+00
48.6416       	-5.000000e+00
48.6457       	-5.000000e+00
48.6499       	-5.000000e+00
48.6541       	-5.000000e+00
48.6582       	-5.000000e+00
48.6623       	-5.000000e+00
48.6664       	-5.000000e+00
48.6705       	-5.000000e+00
48.6747       	-5.000000e+00
48.6788       	-5.000000e+00
48.6829       	-5.000000e+00
48.687        	-5.000000e+00
48.691        	-5.000000e+00
48.695        	-5.000000e+00
48.699        	-5.000000e+00
48.7031       	-5.000000e+00
48.7071       	-5.000000e+00
48.711        	-5.000000e+00
48.715        	-5.000000e+00
48.7189       	-5.000000e+00
48.7229       	-5.000000e+00
48.7268       	-5.000000e+00
48.7307       	-5.000000e+00
48.7346       	-5.000000e+00
48.7385       	-5.000000e+00
48.7424       	-5.000000e+00
48.7463       	-5.000000e+00
48.7502       	-5.000000e+00
48.754        	-5.000000e+00
48.7579       	-5.000000e+00
48.7617       	-5.000000e+00
48.7655       	-5.000000e+00
48.7694       	-5.000000e+00
48.7732       	-5.000000e+00
48.7771       	-5.000000e+00
48.7809       	-5.000000e+00
48.7846       	-5.000000e+00
48.7884       	-5.000000e+00
48.7922       	-5.000000e+00
48.796        	-5.000000e+00
48.7997       	-5.000000e+00
48.8035       	-5.000000e+00
48.8073       	-5.000000e+00
48.8111       	-5.000000e+00
48.8149       	-5.000000e+00
48.8186       	-5.000000e+00
48.8224       	-5.000000e+00
48.8262       	-5.000000e+00
48.83         	-5.000000e+00
48.8337       	-5.000000e+00
48.8375       	-5.000000e+00
48.8413       	-5.000000e+00
48.8451       	-5.000000e+00
48.8489       	-5.000000e+00
48.8526       	-5.000000e+00
48.8564       	-5.000000e+00
48.8602       	-5.000000e+00
48.864        	-5.000000e+00
48.8678       	-5.000000e+00
48.8716       	-5.000000e+00
48.8754       	-5.000000e+00
48.8793       	-5.000000e+00
48.8831       	-5.000000e+00
48.887        	-5.000000e+00
48.8907       	-5.000000e+00
48.8947       	-5.000000e+00
48.8986       	-5.000000e+00
48.9025       	-5.000000e+00
48.9064       	-5.000000e+00
48.9103       	-5.000000e+00
48.9142       	-5.000000e+00
48.9181       	-5.000000e+00
48.922        	-5.000000e+00
48.9259       	-5.000000e+00
48.9298       	-5.000000e+00
48.9337       	-5.000000e+00
48.9376       	-5.000000e+00
48.9415       	-5.000000e+00
48.9454       	-5.000000e+00
48.9493       	-5.000000e+00
48.9532       	-5.000000e+00
48.9568       	-5.000000e+00
48.9607       	-5.000000e+00
48.9646       	-5.000000e+00
48.9682       	-5.000000e+00
48.9717       	-5.000000e+00
48.9752       	-5.000000e+00
48.9788       	-5.000000e+00
48.9823       	-5.000000e+00
48.9859       	-5.000000e+00
48.9894       	-5.000000e+00
48.9929       	-5.000000e+00
48.9965       	-5.000000e+00
49            	-5.000000e+00
49.004        	-5.000000e+00
49.008        	-5.000000e+00
49.012        	-5.000000e+00
49.0158       	-5.000000e+00
49.0196       	-5.000000e+00
49.0234       	-5.000000e+00
49.0272       	-5.000000e+00
49.0309       	-5.000000e+00
49.0347       	-5.000000e+00
49.0385       	-5.000000e+00
49.0422       	-5.000000e+00
49.046        	-5.000000e+00
49.0498       	-5.000000e+00
49.0535       	-5.000000e+00
49.0572       	-5.000000e+00
49.061        	-5.000000e+00
49.0647       	-5.000000e+00
49.0684       	-5.000000e+00
49.0721       	-5.000000e+00
49.0758       	-5.000000e+00
49.0795       	-5.000000e+00
49.0831       	-5.000000e+00
49.0868       	-5.000000e+00
49.0905       	-5.000000e+00
49.0941       	-5.000000e+00
49.0977       	-5.000000e+00
49.1014       	-5.000000e+00
49.105        	-5.000000e+00
49.1086       	-5.000000e+00
49.1122       	-5.000000e+00
49.1158       	-5.000000e+00
49.1193       	-5.000000e+00
49.1229       	-5.000000e+00
49.1265       	-5.000000e+00
49.13         	-5.000000e+00
49.1335       	-5.000000e+00
49.1371       	-5.000000e+00
49.1406       	-5.000000e+00
49.1441       	-5.000000e+00
49.1476       	-5.000000e+00
49.1511       	-5.000000e+00
49.1546       	-5.000000e+00
49.1581       	-5.000000e+00
49.1615       	-5.000000e+00
49.165        	-5.000000e+00
49.1684       	-5.000000e+00
49.1719       	-5.000000e+00
49.1753       	-5.000000e+00
49.1787       	-5.000000e+00
49.1821       	-5.000000e+00
49.1856       	-5.000000e+00
49.189        	-5.000000e+00
49.1924       	-5.000000e+00
49.1957       	-5.000000e+00
49.1991       	-5.000000e+00
49.2024       	-5.000000e+00
49.2057       	-5.000000e+00
49.2091       	-5.000000e+00
49.2124       	-5.000000e+00
49.2157       	-5.000000e+00
49.2191       	-5.000000e+00
49.2224       	-5.000000e+00
49.2258       	-5.000000e+00
49.2292       	-5.000000e+00
49.2325       	-5.000000e+00
49.2358       	-5.000000e+00
49.2391       	-5.000000e+00
49.2424       	-5.000000e+00
49.2457       	-5.000000e+00
49.249        	-5.000000e+00
49.2524       	-5.000000e+00
49.2557       	-5.000000e+00
49.259        	-5.000000e+00
49.2623       	-5.000000e+00
49.2656       	-5.000000e+00
49.2689       	-5.000000e+00
49.2722       	-5.000000e+00
49.2755       	-5.000000e+00
49.2788       	-5.000000e+00
49.2821       	-5.000000e+00
49.2854       	-5.000000e+00
49.2886       	-5.000000e+00
49.2919       	-5.000000e+00
49.2952       	-5.000000e+00
49.2985       	-5.000000e+00
49.3018       	-5.000000e+00
49.3051       	-5.000000e+00
49.3084       	-5.000000e+00
49.3118       	-5.000000e+00
49.3152       	-5.000000e+00
49.3187       	-5.000000e+00
49.322        	-5.000000e+00
49.3254       	-5.000000e+00
49.3287       	-5.000000e+00
49.332        	-5.000000e+00
49.3352       	-5.000000e+00
49.3385       	-5.000000e+00
49.3417       	-5.000000e+00
49.345        	-5.000000e+00
49.3482       	-5.000000e+00
49.3514       	-5.000000e+00
49.3546       	-5.000000e+00
49.3578       	-5.000000e+00
49.361        	-5.000000e+00
49.3642       	-5.000000e+00
49.3673       	-5.000000e+00
49.3704       	-5.000000e+00
49.3736       	-5.000000e+00
49.3767       	-5.000000e+00
49.3798       	-5.000000e+00
49.3829       	-5.000000e+00
49.386        	-5.000000e+00
49.3891       	-5.000000e+00
49.3921       	-5.000000e+00
49.3952       	-5.000000e+00
49.3982       	-5.000000e+00
49.4013       	-5.000000e+00
49.4043       	-5.000000e+00
49.4073       	-5.000000e+00
49.4103       	-5.000000e+00
49.4134       	-5.000000e+00
49.4163       	-5.000000e+00
49.4193       	-5.000000e+00
49.4223       	-5.000000e+00
49.4253       	-5.000000e+00
49.4283       	-5.000000e+00
49.4312       	-5.000000e+00
49.4342       	-5.000000e+00
49.4371       	-5.000000e+00
49.4401       	-5.000000e+00
49.4431       	-5.000000e+00
49.4461       	-5.000000e+00
49.4492       	-5.000000e+00
49.4522       	-5.000000e+00
49.4554       	-5.000000e+00
49.4586       	-5.000000e+00
49.4619       	-5.000000e+00
49.4652       	-5.000000e+00
49.4685       	-5.000000e+00
49.4716       	-5.000000e+00
49.4747       	-5.000000e+00
49.4777       	-5.000000e+00
49.4805       	-5.000000e+00
49.4834       	-5.000000e+00
49.4863       	-5.000000e+00
49.4892       	-5.000000e+00
49.4923       	-5.000000e+00
49.4955       	-5.000000e+00
49.4987       	-5.000000e+00
49.5021       	-5.000000e+00
49.5056       	-5.000000e+00
49.5093       	-5.000000e+00
49.5128       	-5.000000e+00
49.5162       	-5.000000e+00
49.5195       	-5.000000e+00
49.5229       	-5.000000e+00
49.5262       	-5.000000e+00
49.5295       	-5.000000e+00
49.5328       	-5.000000e+00
49.536        	-5.000000e+00
49.5392       	-5.000000e+00
49.5424       	-5.000000e+00
49.5455       	-5.000000e+00
49.5484       	-5.000000e+00
49.5512       	-5.000000e+00
49.5541       	-5.000000e+00
49.5571       	-5.000000e+00
49.5603       	-5.000000e+00
49.5634       	-5.000000e+00
49.5664       	-5.000000e+00
49.5692       	-5.000000e+00
49.5721       	-5.000000e+00
49.5749       	-5.000000e+00
49.5777       	-5.000000e+00
49.5808       	-5.000000e+00
49.5839       	-5.000000e+00
49.5871       	-5.000000e+00
49.5902       	-5.000000e+00
49.5933       	-5.000000e+00
49.5964       	-5.000000e+00
49.5995       	-5.000000e+00
49.6025       	-5.000000e+00
49.6055       	-5.000000e+00
49.6086       	-5.000000e+00
49.6116       	-5.000000e+00
49.6146       	-5.000000e+00
49.6177       	-5.000000e+00
49.6207       	-5.000000e+00
49.6238       	-5.000000e+00
49.6268       	-5.000000e+00
49.6299       	-5.000000e+00
49.6328       	-5.000000e+00
49.6355       	-5.000000e+00
49.6381       	-5.000000e+00
49.6408       	-5.000000e+00
49.6438       	-5.000000e+00
49.6469       	-5.000000e+00
49.6501       	-5.000000e+00
49.6531       	-5.000000e+00
49.6558       	-5.000000e+00
49.6586       	-5.000000e+00
49.6613       	-5.000000e+00
49.6642       	-5.000000e+00
49.6672       	-5.000000e+00
49.6703       	-5.000000e+00
49.6735       	-5.000000e+00
49.6767       	-5.000000e+00
49.6799       	-5.000000e+00
49.683        	-5.000000e+00
49.6861       	-5.000000e+00
49.6892       	-5.000000e+00
49.6922       	-5.000000e+00
49.6953       	-5.000000e+00
49.6983       	-5.000000e+00
49.7014       	-5.000000e+00
49.7044       	-5.000000e+00
49.7075       	-5.000000e+00
49.7105       	-5.000000e+00
49.7136       	-5.000000e+00
49.7166       	-5.000000e+00
49.7197       	-5.000000e+00
49.7227       	-5.000000e+00
49.7258       	-5.000000e+00
49.7289       	-5.000000e+00
49.732        	-5.000000e+00
49.7349       	-5.000000e+00
49.7378       	-5.000000e+00
49.741        	-5.000000e+00
49.7441       	-5.000000e+00
49.7472       	-5.000000e+00
49.7502       	-5.000000e+00
49.7533       	-5.000000e+00
49.7563       	-5.000000e+00
49.7594       	-5.000000e+00
49.7625       	-5.000000e+00
49.7656       	-5.000000e+00
49.7687       	-5.000000e+00
49.7718       	-5.000000e+00
49.7749       	-5.000000e+00
49.7781       	-5.000000e+00
49.7812       	-5.000000e+00
49.7843       	-5.000000e+00
49.7874       	-5.000000e+00
49.7904       	-5.000000e+00
49.7936       	-5.000000e+00
49.7967       	-5.000000e+00
49.7999       	-5.000000e+00
49.803        	-5.000000e+00
49.8061       	-5.000000e+00
49.8093       	-5.000000e+00
49.8124       	-5.000000e+00
49.8155       	-5.000000e+00
49.8183       	-5.000000e+00
49.8209       	-5.000000e+00
49.8237       	-5.000000e+00
49.8266       	-5.000000e+00
49.8296       	-5.000000e+00
49.8327       	-5.000000e+00
49.8359       	-5.000000e+00
49.8392       	-5.000000e+00
49.8422       	-5.000000e+00
49.8453       	-5.000000e+00
49.8486       	-5.000000e+00
49.8519       	-5.000000e+00
49.8552       	-5.000000e+00
49.8585       	-5.000000e+00
49.8617       	-5.000000e+00
49.8649       	-5.000000e+00
49.8682       	-5.000000e+00
49.8714       	-5.000000e+00
49.8744       	-5.000000e+00
49.8774       	-5.000000e+00
49.8805       	-5.000000e+00
49.8836       	-5.000000e+00
49.887        	-5.000000e+00
49.8903       	-5.000000e+00
49.8936       	-5.000000e+00
49.8969       	-5.000000e+00
49.9003       	-5.000000e+00
49.9036       	-5.000000e+00
49.9069       	-5.000000e+00
49.9101       	-5.000000e+00
49.9133       	-5.000000e+00
49.9165       	-5.000000e+00
49.9196       	-5.000000e+00
49.9226       	-5.000000e+00
49.9256       	-5.000000e+00
49.9286       	-5.000000e+00
49.9315       	-5.000000e+00
49.9345       	-5.000000e+00
49.9375       	-5.000000e+00
49.9405       	-5.000000e+00
49.9434       	-5.000000e+00
49.9464       	-5.000000e+00
49.9492       	-5.000000e+00
49.9521       	-5.000000e+00
49.9549       	-5.000000e+00
49.9575       	-5.000000e+00
49.9604       	-5.000000e+00
49.9632       	-5.000000e+00
49.966        	-5.000000e+00
49.9689       	-5.000000e+00
49.9717       	-5.000000e+00
49.9748       	-5.000000e+00
49.978        	-5.000000e+00
49.9811       	-5.000000e+00
49.9843       	-5.000000e+00
49.9874       	-5.000000e+00
49.9906       	-5.000000e+00
49.9937       	-5.000000e+00
49.9969       	-5.000000e+00
50            	-5.000000e+00
50.0036       	-5.000000e+00
50.0075       	-5.000000e+00
50.0112       	-5.000000e+00
50.0145       	-5.000000e+00
50.0176       	-5.000000e+00
50.0206       	-5.000000e+00
50.0236       	-5.000000e+00
50.0266       	-5.000000e+00
50.0295       	-5.000000e+00
50.0323       	-5.000000e+00
50.0351       	-5.000000e+00
50.0378       	-5.000000e+00
50.0402       	-5.000000e+00
50.0425       	-5.000000e+00
50.045        	-5.000000e+00
50.0476       	-5.000000e+00
50.0505       	-5.000000e+00
50.0534       	-5.000000e+00
50.0564       	-5.000000e+00
50.0596       	-5.000000e+00
50.0629       	-5.000000e+00
50.0664       	-5.000000e+00
50.0702       	-5.000000e+00
50.0739       	-5.000000e+00
50.0776       	-5.000000e+00
50.0809       	-5.000000e+00
50.0841       	-5.000000e+00
50.0873       	-5.000000e+00
50.0905       	-5.000000e+00
50.0937       	-5.000000e+00
50.0969       	-5.000000e+00
50.1          	-5.000000e+00
50.1032       	-5.000000e+00
50.1063       	-5.000000e+00
50.1094       	-5.000000e+00
50.1124       	-5.000000e+00
50.1154       	-5.000000e+00
50.1183       	-5.000000e+00
50.1212       	-5.000000e+00
50.1238       	-5.000000e+00
50.1263       	-5.000000e+00
50.1289       	-5.000000e+00
50.1316       	-5.000000e+00
50.1344       	-5.000000e+00
50.1372       	-5.000000e+00
50.14         	-5.000000e+00
50.143        	-5.000000e+00
50.1461       	-5.000000e+00
50.1493       	-5.000000e+00
50.1526       	-5.000000e+00
50.1556       	-5.000000e+00
50.1586       	-5.000000e+00
50.1616       	-5.000000e+00
50.1645       	-5.000000e+00
50.1671       	-5.000000e+00
50.1698       	-5.000000e+00
50.1727       	-5.000000e+00
50.1755       	-5.000000e+00
50.1784       	-5.000000e+00
50.1813       	-5.000000e+00
50.1843       	-5.000000e+00
50.1873       	-5.000000e+00
50.1903       	-5.000000e+00
50.1933       	-5.000000e+00
50.1962       	-5.000000e+00
50.1991       	-5.000000e+00
50.2019       	-5.000000e+00
50.2047       	-5.000000e+00
50.2074       	-5.000000e+00
50.21         	-5.000000e+00
50.2125       	-5.000000e+00
50.2148       	-5.000000e+00
50.2171       	-5.000000e+00
50.2194       	-5.000000e+00
50.2219       	-5.000000e+00
50.2244       	-5.000000e+00
50.2271       	-5.000000e+00
50.23         	-5.000000e+00
50.2329       	-5.000000e+00
50.236        	-5.000000e+00
50.239        	-5.000000e+00
50.242        	-5.000000e+00
50.2446       	-5.000000e+00
50.2472       	-5.000000e+00
50.2499       	-5.000000e+00
50.2527       	-5.000000e+00
50.2556       	-5.000000e+00
50.2585       	-5.000000e+00
50.2614       	-5.000000e+00
50.2644       	-5.000000e+00
50.2675       	-5.000000e+00
50.2706       	-5.000000e+00
50.2737       	-5.000000e+00
50.2769       	-5.000000e+00
50.28         	-5.000000e+00
50.283        	-5.000000e+00
50.286        	-5.000000e+00
50.2888       	-5.000000e+00
50.2916       	-5.000000e+00
50.2943       	-5.000000e+00
50.2968       	-5.000000e+00
50.2993       	-5.000000e+00
50.3017       	-5.000000e+00
50.3041       	-5.000000e+00
50.3065       	-5.000000e+00
50.309        	-5.000000e+00
50.3115       	-5.000000e+00
50.3139       	-5.000000e+00
50.3164       	-5.000000e+00
50.319        	-5.000000e+00
50.3216       	-5.000000e+00
50.3243       	-5.000000e+00
50.327        	-5.000000e+00
50.3299       	-5.000000e+00
50.3329       	-5.000000e+00
50.3359       	-5.000000e+00
50.3384       	-5.000000e+00
50.3408       	-5.000000e+00
50.3433       	-5.000000e+00
50.3459       	-5.000000e+00
50.3485       	-5.000000e+00
50.3511       	-5.000000e+00
50.3534       	-5.000000e+00
50.3556       	-5.000000e+00
50.3579       	-5.000000e+00
50.3601       	-5.000000e+00
50.3624       	-5.000000e+00
50.3646       	-5.000000e+00
50.367        	-5.000000e+00
50.3694       	-5.000000e+00
50.3718       	-5.000000e+00
50.3742       	-5.000000e+00
50.3766       	-5.000000e+00
50.379        	-5.000000e+00
50.3813       	-5.000000e+00
50.3835       	-5.000000e+00
50.3857       	-5.000000e+00
50.3879       	-5.000000e+00
50.39         	-5.000000e+00
50.3921       	-5.000000e+00
50.3941       	-5.000000e+00
50.3962       	-5.000000e+00
50.3981       	-5.000000e+00
50.4          	-5.000000e+00
50.4019       	-5.000000e+00
50.4039       	-5.000000e+00
50.406        	-5.000000e+00
50.4083       	-5.000000e+00
50.4105       	-5.000000e+00
50.4123       	-5.000000e+00
50.4141       	-5.000000e+00
50.4159       	-5.000000e+00
50.4177       	-5.000000e+00
50.4195       	-5.000000e+00
50.4213       	-5.000000e+00
50.4234       	-5.000000e+00
50.4255       	-5.000000e+00
50.4278       	-5.000000e+00
50.4303       	-5.000000e+00
50.4329       	-5.000000e+00
50.4356       	-5.000000e+00
50.4379       	-5.000000e+00
50.44         	-5.000000e+00
50.4422       	-5.000000e+00
50.4443       	-5.000000e+00
50.4465       	-5.000000e+00
50.4488       	-5.000000e+00
50.4512       	-5.000000e+00
50.4536       	-5.000000e+00
50.4558       	-5.000000e+00
50.458        	-5.000000e+00
50.4602       	-5.000000e+00
50.4625       	-5.000000e+00
50.4649       	-5.000000e+00
50.4673       	-5.000000e+00
50.4699       	-5.000000e+00
50.4724       	-5.000000e+00
50.475        	-5.000000e+00
50.4773       	-5.000000e+00
50.4796       	-5.000000e+00
50.4818       	-5.000000e+00
50.4841       	-5.000000e+00
50.4865       	-5.000000e+00
50.4888       	-5.000000e+00
50.491        	-5.000000e+00
50.4932       	-5.000000e+00
50.4954       	-5.000000e+00
50.4976       	-5.000000e+00
50.4996       	-5.000000e+00
50.5015       	-5.000000e+00
50.5034       	-5.000000e+00
50.5054       	-5.000000e+00
50.5075       	-5.000000e+00
50.5098       	-5.000000e+00
50.5123       	-5.000000e+00
50.5148       	-5.000000e+00
50.5173       	-5.000000e+00
50.5196       	-5.000000e+00
50.5216       	-5.000000e+00
50.5236       	-5.000000e+00
50.5256       	-5.000000e+00
50.5275       	-5.000000e+00
50.5293       	-5.000000e+00
50.531        	-5.000000e+00
50.5328       	-5.000000e+00
50.5348       	-5.000000e+00
50.5369       	-5.000000e+00
50.5391       	-5.000000e+00
50.5415       	-5.000000e+00
50.5439       	-5.000000e+00
50.5464       	-5.000000e+00
50.5485       	-5.000000e+00
50.5504       	-5.000000e+00
50.5524       	-5.000000e+00
50.5545       	-5.000000e+00
50.5567       	-5.000000e+00
50.5589       	-5.000000e+00
50.5611       	-5.000000e+00
50.5633       	-5.000000e+00
50.5654       	-5.000000e+00
50.5677       	-5.000000e+00
50.5699       	-5.000000e+00
50.5722       	-5.000000e+00
50.5744       	-5.000000e+00
50.5767       	-5.000000e+00
50.5787       	-5.000000e+00
50.5807       	-5.000000e+00
50.5826       	-5.000000e+00
50.5846       	-5.000000e+00
50.5867       	-5.000000e+00
50.5889       	-5.000000e+00
50.5909       	-5.000000e+00
50.5927       	-5.000000e+00
50.5945       	-5.000000e+00
50.5962       	-5.000000e+00
50.598        	-5.000000e+00
50.5998       	-5.000000e+00
50.6016       	-5.000000e+00
50.6036       	-5.000000e+00
50.6057       	-5.000000e+00
50.6077       	-5.000000e+00
50.6097       	-5.000000e+00
50.6115       	-5.000000e+00
50.6133       	-5.000000e+00
50.6151       	-5.000000e+00
50.6168       	-5.000000e+00
50.6185       	-5.000000e+00
50.6203       	-5.000000e+00
50.6222       	-5.000000e+00
50.6242       	-5.000000e+00
50.6264       	-5.000000e+00
50.6288       	-5.000000e+00
50.6312       	-5.000000e+00
50.6332       	-5.000000e+00
50.635        	-5.000000e+00
50.6367       	-5.000000e+00
50.6384       	-5.000000e+00
50.6403       	-5.000000e+00
50.6424       	-5.000000e+00
50.6444       	-5.000000e+00
50.6464       	-5.000000e+00
50.6484       	-5.000000e+00
50.6506       	-5.000000e+00
50.6528       	-5.000000e+00
50.655        	-5.000000e+00
50.657        	-5.000000e+00
50.6591       	-5.000000e+00
50.6612       	-5.000000e+00
50.6635       	-5.000000e+00
50.6658       	-5.000000e+00
50.6682       	-5.000000e+00
50.6705       	-5.000000e+00
50.6726       	-5.000000e+00
50.6748       	-5.000000e+00
50.677        	-5.000000e+00
50.6793       	-5.000000e+00
50.6816       	-5.000000e+00
50.6839       	-5.000000e+00
50.6863       	-5.000000e+00
50.6886       	-5.000000e+00
50.6907       	-5.000000e+00
50.6927       	-5.000000e+00
50.6947       	-5.000000e+00
50.697        	-5.000000e+00
50.6995       	-5.000000e+00
50.7016       	-5.000000e+00
50.7036       	-5.000000e+00
50.7057       	-5.000000e+00
50.7079       	-5.000000e+00
50.7101       	-5.000000e+00
50.7122       	-5.000000e+00
50.7142       	-5.000000e+00
50.7161       	-5.000000e+00
50.7183       	-5.000000e+00
50.7205       	-5.000000e+00
50.7226       	-5.000000e+00
50.7245       	-5.000000e+00
50.7264       	-5.000000e+00
50.7283       	-5.000000e+00
50.7302       	-5.000000e+00
50.7322       	-5.000000e+00
50.7344       	-5.000000e+00
50.7366       	-5.000000e+00
50.739        	-5.000000e+00
50.741        	-5.000000e+00
50.7429       	-5.000000e+00
50.7447       	-5.000000e+00
50.7466       	-5.000000e+00
50.7484       	-5.000000e+00
50.7502       	-5.000000e+00
50.7522       	-5.000000e+00
50.7542       	-5.000000e+00
50.7561       	-5.000000e+00
50.7579       	-5.000000e+00
50.7598       	-5.000000e+00
50.7619       	-5.000000e+00
50.7641       	-5.000000e+00
50.7663       	-5.000000e+00
50.7685       	-5.000000e+00
50.7707       	-5.000000e+00
50.773        	-5.000000e+00
50.7753       	-5.000000e+00
50.7776       	-5.000000e+00
50.78         	-5.000000e+00
50.7823       	-5.000000e+00
50.7847       	-5.000000e+00
50.7871       	-5.000000e+00
50.7894       	-5.000000e+00
50.7917       	-5.000000e+00
50.794        	-5.000000e+00