# Region type : patch Inlet
# Faces  :    288
# Area   :    1.406185e+00
# Time        	sum(phi)
0             	-5.000000e-01
