# Region type : patch Outlet
# Faces  :    20610
# Area   :    6.753910e+01
# Time        	sum(phi)
0             	0.000000e+00
