# Region type : patch Outlet
# Faces  :    20610
# Area   :    6.753910e+01
# Time        	sum(phi)
47            	0.000000e+00
47.0097       	0.000000e+00
47.0191       	0.000000e+00
47.0284       	0.000000e+00
47.0376       	0.000000e+00
47.0469       	0.000000e+00
47.0562       	0.000000e+00
47.0657       	0.000000e+00
47.0752       	0.000000e+00
47.0848       	0.000000e+00
47.0944       	0.000000e+00
47.1038       	0.000000e+00
47.1132       	0.000000e+00
47.1227       	0.000000e+00
47.132        	0.000000e+00
47.1413       	0.000000e+00
47.1508       	0.000000e+00
47.1603       	0.000000e+00
47.1701       	0.000000e+00
47.1797       	0.000000e+00
47.1892       	0.000000e+00
47.1985       	0.000000e+00
47.2077       	0.000000e+00
47.2169       	0.000000e+00
47.2261       	0.000000e+00
47.2353       	0.000000e+00
47.2446       	0.000000e+00
47.2539       	0.000000e+00
47.2633       	0.000000e+00
47.2729       	0.000000e+00
47.2823       	0.000000e+00
47.2917       	0.000000e+00
47.3009       	0.000000e+00
47.3099       	0.000000e+00
47.319        	0.000000e+00
47.3281       	0.000000e+00
47.3373       	0.000000e+00
47.3466       	0.000000e+00
47.3561       	0.000000e+00
47.3656       	0.000000e+00
47.375        	0.000000e+00
47.3845       	0.000000e+00
47.3938       	0.000000e+00
47.4032       	0.000000e+00
47.4125       	0.000000e+00
47.4218       	0.000000e+00
47.4313       	0.000000e+00
47.4409       	0.000000e+00
47.4506       	0.000000e+00
47.46         	0.000000e+00
47.4693       	0.000000e+00
47.4787       	0.000000e+00
47.4878       	0.000000e+00
47.497        	0.000000e+00
47.5061       	0.000000e+00
47.5152       	0.000000e+00
47.5246       	0.000000e+00
47.5339       	0.000000e+00
47.5432       	0.000000e+00
47.5527       	0.000000e+00
47.562        	0.000000e+00
47.5714       	0.000000e+00
47.5805       	0.000000e+00
47.5896       	0.000000e+00
47.5987       	0.000000e+00
47.6078       	0.000000e+00
47.6172       	0.000000e+00
47.6265       	0.000000e+00
47.6359       	0.000000e+00
47.6452       	0.000000e+00
47.6545       	0.000000e+00
47.6639       	0.000000e+00
47.6732       	0.000000e+00
47.6825       	0.000000e+00
47.6916       	0.000000e+00
47.7007       	0.000000e+00
47.7095       	0.000000e+00
47.718        	0.000000e+00
47.7266       	0.000000e+00
47.7349       	0.000000e+00
47.7424       	0.000000e+00
47.7492       	0.000000e+00
47.7555       	0.000000e+00
47.7614       	0.000000e+00
47.7674       	0.000000e+00
47.7734       	0.000000e+00
47.7793       	0.000000e+00
47.7855       	0.000000e+00
47.7916       	0.000000e+00
47.7977       	0.000000e+00
47.8039       	0.000000e+00
47.8098       	0.000000e+00
47.8154       	0.000000e+00
47.8205       	0.000000e+00
47.8254       	0.000000e+00
47.8301       	0.000000e+00
47.8346       	0.000000e+00
47.8389       	0.000000e+00
47.8432       	0.000000e+00
47.8473       	0.000000e+00
47.8513       	0.000000e+00
47.8553       	0.000000e+00
47.8593       	0.000000e+00
47.8632       	0.000000e+00
47.8672       	0.000000e+00
47.8711       	0.000000e+00
47.875        	0.000000e+00
47.8789       	0.000000e+00
47.8828       	0.000000e+00
47.8868       	0.000000e+00
47.8909       	0.000000e+00
47.8949       	0.000000e+00
47.899        	0.000000e+00
47.903        	0.000000e+00
47.9072       	0.000000e+00
47.9114       	0.000000e+00
47.9156       	0.000000e+00
47.9199       	0.000000e+00
47.9241       	0.000000e+00
47.9285       	0.000000e+00
47.933        	0.000000e+00
47.9375       	0.000000e+00
47.9419       	0.000000e+00
47.9464       	0.000000e+00
47.9509       	0.000000e+00
47.9553       	0.000000e+00
47.9598       	0.000000e+00
47.9643       	0.000000e+00
47.9687       	0.000000e+00
47.9732       	0.000000e+00
47.9777       	0.000000e+00
47.9821       	0.000000e+00
47.9866       	0.000000e+00
47.9911       	0.000000e+00
47.9955       	0.000000e+00
48            	0.000000e+00
48.0048       	0.000000e+00
48.0096       	0.000000e+00
48.0144       	0.000000e+00
48.0191       	0.000000e+00
48.0239       	0.000000e+00
48.0287       	0.000000e+00
48.0335       	0.000000e+00
48.0383       	0.000000e+00
48.0432       	0.000000e+00
48.048        	0.000000e+00
48.0529       	0.000000e+00
48.0576       	0.000000e+00
48.0622       	0.000000e+00
48.0667       	0.000000e+00
48.071        	0.000000e+00
48.0752       	0.000000e+00
48.0795       	0.000000e+00
48.0838       	0.000000e+00
48.0881       	0.000000e+00
48.0924       	0.000000e+00
48.0968       	0.000000e+00
48.1012       	0.000000e+00
48.1055       	0.000000e+00
48.1099       	0.000000e+00
48.1138       	0.000000e+00
48.1176       	0.000000e+00
48.1213       	0.000000e+00
48.125        	0.000000e+00
48.1287       	0.000000e+00
48.1323       	0.000000e+00
48.136        	0.000000e+00
48.1396       	0.000000e+00
48.1432       	0.000000e+00
48.1467       	0.000000e+00
48.1503       	0.000000e+00
48.1538       	0.000000e+00
48.1573       	0.000000e+00
48.1608       	0.000000e+00
48.1643       	0.000000e+00
48.1677       	0.000000e+00
48.1711       	0.000000e+00
48.1745       	0.000000e+00
48.1779       	0.000000e+00
48.1813       	0.000000e+00
48.1847       	0.000000e+00
48.188        	0.000000e+00
48.1913       	0.000000e+00
48.1945       	0.000000e+00
48.1976       	0.000000e+00
48.2005       	0.000000e+00
48.2034       	0.000000e+00
48.2062       	0.000000e+00
48.2091       	0.000000e+00
48.2121       	0.000000e+00
48.2151       	0.000000e+00
48.2181       	0.000000e+00
48.2212       	0.000000e+00
48.2242       	0.000000e+00
48.2271       	0.000000e+00
48.2297       	0.000000e+00
48.2323       	0.000000e+00
48.2349       	0.000000e+00
48.2375       	0.000000e+00
48.2402       	0.000000e+00
48.243        	0.000000e+00
48.2459       	0.000000e+00
48.2489       	0.000000e+00
48.2519       	0.000000e+00
48.255        	0.000000e+00
48.2582       	0.000000e+00
48.2613       	0.000000e+00
48.2644       	0.000000e+00
48.2676       	0.000000e+00
48.2708       	0.000000e+00
48.2741       	0.000000e+00
48.2774       	0.000000e+00
48.2808       	0.000000e+00
48.2842       	0.000000e+00
48.2876       	0.000000e+00
48.2912       	0.000000e+00
48.2948       	0.000000e+00
48.2984       	0.000000e+00
48.302        	0.000000e+00
48.3057       	0.000000e+00
48.3094       	0.000000e+00
48.3132       	0.000000e+00
48.317        	0.000000e+00
48.3209       	0.000000e+00
48.3249       	0.000000e+00
48.3288       	0.000000e+00
48.3328       	0.000000e+00
48.337        	0.000000e+00
48.3412       	0.000000e+00
48.3454       	0.000000e+00
48.3496       	0.000000e+00
48.354        	0.000000e+00
48.3585       	0.000000e+00
48.363        	0.000000e+00
48.3676       	0.000000e+00
48.3723       	0.000000e+00
48.377        	0.000000e+00
48.3818       	0.000000e+00
48.3867       	0.000000e+00
48.3918       	0.000000e+00
48.3968       	0.000000e+00
48.4019       	0.000000e+00
48.4068       	0.000000e+00
48.4116       	0.000000e+00
48.4164       	0.000000e+00
48.4211       	0.000000e+00
48.4258       	0.000000e+00
48.4304       	0.000000e+00
48.4351       	0.000000e+00
48.4397       	0.000000e+00
48.4444       	0.000000e+00
48.449        	0.000000e+00
48.4536       	0.000000e+00
48.4581       	0.000000e+00
48.4627       	0.000000e+00
48.4672       	0.000000e+00
48.4717       	0.000000e+00
48.4762       	0.000000e+00
48.4807       	0.000000e+00
48.4852       	0.000000e+00
48.4897       	0.000000e+00
48.4941       	0.000000e+00
48.4986       	0.000000e+00
48.503        	0.000000e+00
48.5074       	0.000000e+00
48.5118       	0.000000e+00
48.5162       	0.000000e+00
48.5206       	0.000000e+00
48.525        	0.000000e+00
48.5293       	0.000000e+00
48.5337       	0.000000e+00
48.5381       	0.000000e+00
48.5424       	0.000000e+00
48.5468       	0.000000e+00
48.5511       	0.000000e+00
48.5555       	0.000000e+00
48.5598       	0.000000e+00
48.5642       	0.000000e+00
48.5686       	0.000000e+00
48.5729       	0.000000e+00
48.5772       	0.000000e+00
48.5815       	0.000000e+00
48.5859       	0.000000e+00
48.5902       	0.000000e+00
48.5945       	0.000000e+00
48.5988       	0.000000e+00
48.6031       	0.000000e+00
48.6074       	0.000000e+00
48.6117       	0.000000e+00
48.616        	0.000000e+00
48.6203       	0.000000e+00
48.6245       	0.000000e+00
48.6288       	0.000000e+00
48.6331       	0.000000e+00
48.6373       	0.000000e+00
48.6416       	0.000000e+00
48.6457       	0.000000e+00
48.6499       	0.000000e+00
48.6541       	0.000000e+00
48.6582       	0.000000e+00
48.6623       	0.000000e+00
48.6664       	0.000000e+00
48.6705       	0.000000e+00
48.6747       	0.000000e+00
48.6788       	0.000000e+00
48.6829       	0.000000e+00
48.687        	0.000000e+00
48.691        	0.000000e+00
48.695        	0.000000e+00
48.699        	0.000000e+00
48.7031       	0.000000e+00
48.7071       	0.000000e+00
48.711        	0.000000e+00
48.715        	0.000000e+00
48.7189       	0.000000e+00
48.7229       	0.000000e+00
48.7268       	0.000000e+00
48.7307       	0.000000e+00
48.7346       	0.000000e+00
48.7385       	0.000000e+00
48.7424       	0.000000e+00
48.7463       	0.000000e+00
48.7502       	0.000000e+00
48.754        	0.000000e+00
48.7579       	0.000000e+00
48.7617       	0.000000e+00
48.7655       	0.000000e+00
48.7694       	0.000000e+00
48.7732       	0.000000e+00
48.7771       	0.000000e+00
48.7809       	0.000000e+00
48.7846       	0.000000e+00
48.7884       	0.000000e+00
48.7922       	0.000000e+00
48.796        	0.000000e+00
48.7997       	0.000000e+00
48.8035       	0.000000e+00
48.8073       	0.000000e+00
48.8111       	0.000000e+00
48.8149       	0.000000e+00
48.8186       	0.000000e+00
48.8224       	0.000000e+00
48.8262       	0.000000e+00
48.83         	0.000000e+00
48.8337       	0.000000e+00
48.8375       	0.000000e+00
48.8413       	0.000000e+00
48.8451       	0.000000e+00
48.8489       	0.000000e+00
48.8526       	0.000000e+00
48.8564       	0.000000e+00
48.8602       	0.000000e+00
48.864        	0.000000e+00
48.8678       	0.000000e+00
48.8716       	0.000000e+00
48.8754       	0.000000e+00
48.8793       	0.000000e+00
48.8831       	0.000000e+00
48.887        	0.000000e+00
48.8907       	0.000000e+00
48.8947       	0.000000e+00
48.8986       	0.000000e+00
48.9025       	0.000000e+00
48.9064       	0.000000e+00
48.9103       	0.000000e+00
48.9142       	0.000000e+00
48.9181       	0.000000e+00
48.922        	0.000000e+00
48.9259       	0.000000e+00
48.9298       	0.000000e+00
48.9337       	0.000000e+00
48.9376       	0.000000e+00
48.9415       	0.000000e+00
48.9454       	0.000000e+00
48.9493       	0.000000e+00
48.9532       	0.000000e+00
48.9568       	0.000000e+00
48.9607       	0.000000e+00
48.9646       	0.000000e+00
48.9682       	0.000000e+00
48.9717       	0.000000e+00
48.9752       	0.000000e+00
48.9788       	0.000000e+00
48.9823       	0.000000e+00
48.9859       	0.000000e+00
48.9894       	0.000000e+00
48.9929       	0.000000e+00
48.9965       	0.000000e+00
49            	0.000000e+00
49.004        	0.000000e+00
49.008        	0.000000e+00
49.012        	0.000000e+00
49.0158       	0.000000e+00
49.0196       	0.000000e+00
49.0234       	0.000000e+00
49.0272       	0.000000e+00
49.0309       	0.000000e+00
49.0347       	0.000000e+00
49.0385       	0.000000e+00
49.0422       	0.000000e+00
49.046        	0.000000e+00
49.0498       	0.000000e+00
49.0535       	0.000000e+00
49.0572       	0.000000e+00
49.061        	0.000000e+00
49.0647       	0.000000e+00
49.0684       	0.000000e+00
49.0721       	0.000000e+00
49.0758       	0.000000e+00
49.0795       	0.000000e+00
49.0831       	0.000000e+00
49.0868       	0.000000e+00
49.0905       	0.000000e+00
49.0941       	0.000000e+00
49.0977       	0.000000e+00
49.1014       	0.000000e+00
49.105        	0.000000e+00
49.1086       	0.000000e+00
49.1122       	0.000000e+00
49.1158       	0.000000e+00
49.1193       	0.000000e+00
49.1229       	0.000000e+00
49.1265       	0.000000e+00
49.13         	0.000000e+00
49.1335       	0.000000e+00
49.1371       	0.000000e+00
49.1406       	0.000000e+00
49.1441       	0.000000e+00
49.1476       	0.000000e+00
49.1511       	0.000000e+00
49.1546       	0.000000e+00
49.1581       	0.000000e+00
49.1615       	0.000000e+00
49.165        	0.000000e+00
49.1684       	0.000000e+00
49.1719       	0.000000e+00
49.1753       	0.000000e+00
49.1787       	0.000000e+00
49.1821       	0.000000e+00
49.1856       	0.000000e+00
49.189        	0.000000e+00
49.1924       	0.000000e+00
49.1957       	0.000000e+00
49.1991       	0.000000e+00
49.2024       	0.000000e+00
49.2057       	0.000000e+00
49.2091       	0.000000e+00
49.2124       	0.000000e+00
49.2157       	0.000000e+00
49.2191       	0.000000e+00
49.2224       	0.000000e+00
49.2258       	0.000000e+00
49.2292       	0.000000e+00
49.2325       	0.000000e+00
49.2358       	0.000000e+00
49.2391       	0.000000e+00
49.2424       	0.000000e+00
49.2457       	0.000000e+00
49.249        	0.000000e+00
49.2524       	0.000000e+00
49.2557       	0.000000e+00
49.259        	0.000000e+00
49.2623       	0.000000e+00
49.2656       	0.000000e+00
49.2689       	0.000000e+00
49.2722       	0.000000e+00
49.2755       	0.000000e+00
49.2788       	0.000000e+00
49.2821       	0.000000e+00
49.2854       	0.000000e+00
49.2886       	0.000000e+00
49.2919       	0.000000e+00
49.2952       	0.000000e+00
49.2985       	0.000000e+00
49.3018       	0.000000e+00
49.3051       	0.000000e+00
49.3084       	0.000000e+00
49.3118       	0.000000e+00
49.3152       	0.000000e+00
49.3187       	0.000000e+00
49.322        	0.000000e+00
49.3254       	0.000000e+00
49.3287       	0.000000e+00
49.332        	0.000000e+00
49.3352       	0.000000e+00
49.3385       	0.000000e+00
49.3417       	0.000000e+00
49.345        	0.000000e+00
49.3482       	0.000000e+00
49.3514       	0.000000e+00
49.3546       	0.000000e+00
49.3578       	0.000000e+00
49.361        	0.000000e+00
49.3642       	0.000000e+00
49.3673       	0.000000e+00
49.3704       	0.000000e+00
49.3736       	0.000000e+00
49.3767       	0.000000e+00
49.3798       	0.000000e+00
49.3829       	0.000000e+00
49.386        	0.000000e+00
49.3891       	0.000000e+00
49.3921       	0.000000e+00
49.3952       	0.000000e+00
49.3982       	0.000000e+00
49.4013       	0.000000e+00
49.4043       	0.000000e+00
49.4073       	0.000000e+00
49.4103       	0.000000e+00
49.4134       	0.000000e+00
49.4163       	0.000000e+00
49.4193       	0.000000e+00
49.4223       	0.000000e+00
49.4253       	0.000000e+00
49.4283       	0.000000e+00
49.4312       	0.000000e+00
49.4342       	0.000000e+00
49.4371       	0.000000e+00
49.4401       	0.000000e+00
49.4431       	0.000000e+00
49.4461       	0.000000e+00
49.4492       	0.000000e+00
49.4522       	0.000000e+00
49.4554       	0.000000e+00
49.4586       	0.000000e+00
49.4619       	0.000000e+00
49.4652       	0.000000e+00
49.4685       	0.000000e+00
49.4716       	0.000000e+00
49.4747       	0.000000e+00
49.4777       	0.000000e+00
49.4805       	0.000000e+00
49.4834       	0.000000e+00
49.4863       	0.000000e+00
49.4892       	0.000000e+00
49.4923       	0.000000e+00
49.4955       	0.000000e+00
49.4987       	0.000000e+00
49.5021       	0.000000e+00
49.5056       	0.000000e+00
49.5093       	0.000000e+00
49.5128       	0.000000e+00
49.5162       	0.000000e+00
49.5195       	0.000000e+00
49.5229       	0.000000e+00
49.5262       	0.000000e+00
49.5295       	0.000000e+00
49.5328       	0.000000e+00
49.536        	0.000000e+00
49.5392       	0.000000e+00
49.5424       	0.000000e+00
49.5455       	0.000000e+00
49.5484       	0.000000e+00
49.5512       	0.000000e+00
49.5541       	0.000000e+00
49.5571       	0.000000e+00
49.5603       	0.000000e+00
49.5634       	0.000000e+00
49.5664       	0.000000e+00
49.5692       	0.000000e+00
49.5721       	0.000000e+00
49.5749       	0.000000e+00
49.5777       	0.000000e+00
49.5808       	0.000000e+00
49.5839       	0.000000e+00
49.5871       	0.000000e+00
49.5902       	0.000000e+00
49.5933       	0.000000e+00
49.5964       	0.000000e+00
49.5995       	0.000000e+00
49.6025       	0.000000e+00
49.6055       	0.000000e+00
49.6086       	0.000000e+00
49.6116       	0.000000e+00
49.6146       	0.000000e+00
49.6177       	0.000000e+00
49.6207       	0.000000e+00
49.6238       	0.000000e+00
49.6268       	0.000000e+00
49.6299       	0.000000e+00
49.6328       	0.000000e+00
49.6355       	0.000000e+00
49.6381       	0.000000e+00
49.6408       	0.000000e+00
49.6438       	0.000000e+00
49.6469       	0.000000e+00
49.6501       	0.000000e+00
49.6531       	0.000000e+00
49.6558       	0.000000e+00
49.6586       	0.000000e+00
49.6613       	0.000000e+00
49.6642       	0.000000e+00
49.6672       	0.000000e+00
49.6703       	0.000000e+00
49.6735       	0.000000e+00
49.6767       	0.000000e+00
49.6799       	0.000000e+00
49.683        	0.000000e+00
49.6861       	0.000000e+00
49.6892       	0.000000e+00
49.6922       	0.000000e+00
49.6953       	0.000000e+00
49.6983       	0.000000e+00
49.7014       	0.000000e+00
49.7044       	0.000000e+00
49.7075       	0.000000e+00
49.7105       	0.000000e+00
49.7136       	0.000000e+00
49.7166       	0.000000e+00
49.7197       	0.000000e+00
49.7227       	0.000000e+00
49.7258       	0.000000e+00
49.7289       	0.000000e+00
49.732        	0.000000e+00
49.7349       	0.000000e+00
49.7378       	0.000000e+00
49.741        	0.000000e+00
49.7441       	0.000000e+00
49.7472       	0.000000e+00
49.7502       	0.000000e+00
49.7533       	0.000000e+00
49.7563       	0.000000e+00
49.7594       	0.000000e+00
49.7625       	0.000000e+00
49.7656       	0.000000e+00
49.7687       	0.000000e+00
49.7718       	0.000000e+00
49.7749       	0.000000e+00
49.7781       	0.000000e+00
49.7812       	0.000000e+00
49.7843       	0.000000e+00
49.7874       	0.000000e+00
49.7904       	0.000000e+00
49.7936       	0.000000e+00
49.7967       	0.000000e+00
49.7999       	0.000000e+00
49.803        	0.000000e+00
49.8061       	0.000000e+00
49.8093       	0.000000e+00
49.8124       	0.000000e+00
49.8155       	0.000000e+00
49.8183       	0.000000e+00
49.8209       	0.000000e+00
49.8237       	0.000000e+00
49.8266       	0.000000e+00
49.8296       	0.000000e+00
49.8327       	0.000000e+00
49.8359       	0.000000e+00
49.8392       	0.000000e+00
49.8422       	0.000000e+00
49.8453       	0.000000e+00
49.8486       	0.000000e+00
49.8519       	0.000000e+00
49.8552       	0.000000e+00
49.8585       	0.000000e+00
49.8617       	0.000000e+00
49.8649       	0.000000e+00
49.8682       	0.000000e+00
49.8714       	0.000000e+00
49.8744       	0.000000e+00
49.8774       	0.000000e+00
49.8805       	0.000000e+00
49.8836       	0.000000e+00
49.887        	0.000000e+00
49.8903       	0.000000e+00
49.8936       	0.000000e+00
49.8969       	0.000000e+00
49.9003       	0.000000e+00
49.9036       	0.000000e+00
49.9069       	0.000000e+00
49.9101       	0.000000e+00
49.9133       	0.000000e+00
49.9165       	0.000000e+00
49.9196       	0.000000e+00
49.9226       	0.000000e+00
49.9256       	0.000000e+00
49.9286       	0.000000e+00
49.9315       	0.000000e+00
49.9345       	0.000000e+00
49.9375       	0.000000e+00
49.9405       	0.000000e+00
49.9434       	0.000000e+00
49.9464       	0.000000e+00
49.9492       	0.000000e+00
49.9521       	0.000000e+00
49.9549       	0.000000e+00
49.9575       	0.000000e+00
49.9604       	0.000000e+00
49.9632       	0.000000e+00
49.966        	0.000000e+00
49.9689       	0.000000e+00
49.9717       	0.000000e+00
49.9748       	0.000000e+00
49.978        	0.000000e+00
49.9811       	0.000000e+00
49.9843       	0.000000e+00
49.9874       	0.000000e+00
49.9906       	0.000000e+00
49.9937       	0.000000e+00
49.9969       	0.000000e+00
50            	0.000000e+00
50.0036       	0.000000e+00
50.0075       	0.000000e+00
50.0112       	0.000000e+00
50.0145       	0.000000e+00
50.0176       	0.000000e+00
50.0206       	0.000000e+00
50.0236       	0.000000e+00
50.0266       	0.000000e+00
50.0295       	0.000000e+00
50.0323       	0.000000e+00
50.0351       	0.000000e+00
50.0378       	0.000000e+00
50.0402       	0.000000e+00
50.0425       	0.000000e+00
50.045        	0.000000e+00
50.0476       	0.000000e+00
50.0505       	0.000000e+00
50.0534       	0.000000e+00
50.0564       	0.000000e+00
50.0596       	0.000000e+00
50.0629       	0.000000e+00
50.0664       	0.000000e+00
50.0702       	0.000000e+00
50.0739       	0.000000e+00
50.0776       	0.000000e+00
50.0809       	0.000000e+00
50.0841       	0.000000e+00
50.0873       	0.000000e+00
50.0905       	0.000000e+00
50.0937       	0.000000e+00
50.0969       	0.000000e+00
50.1          	0.000000e+00
50.1032       	0.000000e+00
50.1063       	0.000000e+00
50.1094       	0.000000e+00
50.1124       	0.000000e+00
50.1154       	0.000000e+00
50.1183       	0.000000e+00
50.1212       	0.000000e+00
50.1238       	0.000000e+00
50.1263       	0.000000e+00
50.1289       	0.000000e+00
50.1316       	0.000000e+00
50.1344       	0.000000e+00
50.1372       	0.000000e+00
50.14         	0.000000e+00
50.143        	0.000000e+00
50.1461       	0.000000e+00
50.1493       	0.000000e+00
50.1526       	0.000000e+00
50.1556       	0.000000e+00
50.1586       	0.000000e+00
50.1616       	0.000000e+00
50.1645       	0.000000e+00
50.1671       	0.000000e+00
50.1698       	0.000000e+00
50.1727       	0.000000e+00
50.1755       	0.000000e+00
50.1784       	0.000000e+00
50.1813       	0.000000e+00
50.1843       	0.000000e+00
50.1873       	0.000000e+00
50.1903       	0.000000e+00
50.1933       	0.000000e+00
50.1962       	0.000000e+00
50.1991       	0.000000e+00
50.2019       	0.000000e+00
50.2047       	0.000000e+00
50.2074       	0.000000e+00
50.21         	0.000000e+00
50.2125       	0.000000e+00
50.2148       	0.000000e+00
50.2171       	0.000000e+00
50.2194       	0.000000e+00
50.2219       	0.000000e+00
50.2244       	0.000000e+00
50.2271       	0.000000e+00
50.23         	0.000000e+00
50.2329       	0.000000e+00
50.236        	0.000000e+00
50.239        	0.000000e+00
50.242        	0.000000e+00
50.2446       	0.000000e+00
50.2472       	0.000000e+00
50.2499       	0.000000e+00
50.2527       	0.000000e+00
50.2556       	0.000000e+00
50.2585       	0.000000e+00
50.2614       	0.000000e+00
50.2644       	0.000000e+00
50.2675       	0.000000e+00
50.2706       	0.000000e+00
50.2737       	0.000000e+00
50.2769       	0.000000e+00
50.28         	0.000000e+00
50.283        	0.000000e+00
50.286        	0.000000e+00
50.2888       	0.000000e+00
50.2916       	0.000000e+00
50.2943       	0.000000e+00
50.2968       	0.000000e+00
50.2993       	0.000000e+00
50.3017       	0.000000e+00
50.3041       	0.000000e+00
50.3065       	0.000000e+00
50.309        	0.000000e+00
50.3115       	0.000000e+00
50.3139       	0.000000e+00
50.3164       	0.000000e+00
50.319        	0.000000e+00
50.3216       	0.000000e+00
50.3243       	0.000000e+00
50.327        	0.000000e+00
50.3299       	0.000000e+00
50.3329       	0.000000e+00
50.3359       	0.000000e+00
50.3384       	0.000000e+00
50.3408       	0.000000e+00
50.3433       	0.000000e+00
50.3459       	0.000000e+00
50.3485       	0.000000e+00
50.3511       	0.000000e+00
50.3534       	0.000000e+00
50.3556       	0.000000e+00
50.3579       	0.000000e+00
50.3601       	0.000000e+00
50.3624       	0.000000e+00
50.3646       	0.000000e+00
50.367        	0.000000e+00
50.3694       	0.000000e+00
50.3718       	0.000000e+00
50.3742       	0.000000e+00
50.3766       	0.000000e+00
50.379        	0.000000e+00
50.3813       	0.000000e+00
50.3835       	0.000000e+00
50.3857       	0.000000e+00
50.3879       	0.000000e+00
50.39         	0.000000e+00
50.3921       	0.000000e+00
50.3941       	0.000000e+00
50.3962       	0.000000e+00
50.3981       	0.000000e+00
50.4          	0.000000e+00
50.4019       	0.000000e+00
50.4039       	0.000000e+00
50.406        	0.000000e+00
50.4083       	0.000000e+00
50.4105       	0.000000e+00
50.4123       	0.000000e+00
50.4141       	0.000000e+00
50.4159       	0.000000e+00
50.4177       	0.000000e+00
50.4195       	0.000000e+00
50.4213       	0.000000e+00
50.4234       	0.000000e+00
50.4255       	0.000000e+00
50.4278       	0.000000e+00
50.4303       	0.000000e+00
50.4329       	0.000000e+00
50.4356       	0.000000e+00
50.4379       	0.000000e+00
50.44         	0.000000e+00
50.4422       	0.000000e+00
50.4443       	0.000000e+00
50.4465       	0.000000e+00
50.4488       	0.000000e+00
50.4512       	0.000000e+00
50.4536       	0.000000e+00
50.4558       	0.000000e+00
50.458        	0.000000e+00
50.4602       	0.000000e+00
50.4625       	0.000000e+00
50.4649       	0.000000e+00
50.4673       	0.000000e+00
50.4699       	0.000000e+00
50.4724       	0.000000e+00
50.475        	0.000000e+00
50.4773       	0.000000e+00
50.4796       	0.000000e+00
50.4818       	0.000000e+00
50.4841       	0.000000e+00
50.4865       	0.000000e+00
50.4888       	0.000000e+00
50.491        	0.000000e+00
50.4932       	0.000000e+00
50.4954       	0.000000e+00
50.4976       	0.000000e+00
50.4996       	0.000000e+00
50.5015       	0.000000e+00
50.5034       	0.000000e+00
50.5054       	0.000000e+00
50.5075       	0.000000e+00
50.5098       	0.000000e+00
50.5123       	0.000000e+00
50.5148       	0.000000e+00
50.5173       	0.000000e+00
50.5196       	0.000000e+00
50.5216       	0.000000e+00
50.5236       	0.000000e+00
50.5256       	0.000000e+00
50.5275       	0.000000e+00
50.5293       	0.000000e+00
50.531        	0.000000e+00
50.5328       	0.000000e+00
50.5348       	0.000000e+00
50.5369       	0.000000e+00
50.5391       	0.000000e+00
50.5415       	0.000000e+00
50.5439       	0.000000e+00
50.5464       	0.000000e+00
50.5485       	0.000000e+00
50.5504       	0.000000e+00
50.5524       	0.000000e+00
50.5545       	0.000000e+00
50.5567       	0.000000e+00
50.5589       	0.000000e+00
50.5611       	0.000000e+00
50.5633       	0.000000e+00
50.5654       	0.000000e+00
50.5677       	0.000000e+00
50.5699       	0.000000e+00
50.5722       	0.000000e+00
50.5744       	0.000000e+00
50.5767       	0.000000e+00
50.5787       	0.000000e+00
50.5807       	0.000000e+00
50.5826       	0.000000e+00
50.5846       	0.000000e+00
50.5867       	0.000000e+00
50.5889       	0.000000e+00
50.5909       	0.000000e+00
50.5927       	0.000000e+00
50.5945       	0.000000e+00
50.5962       	0.000000e+00
50.598        	0.000000e+00
50.5998       	0.000000e+00
50.6016       	0.000000e+00
50.6036       	0.000000e+00
50.6057       	0.000000e+00
50.6077       	0.000000e+00
50.6097       	0.000000e+00
50.6115       	0.000000e+00
50.6133       	0.000000e+00
50.6151       	0.000000e+00
50.6168       	0.000000e+00
50.6185       	0.000000e+00
50.6203       	0.000000e+00
50.6222       	0.000000e+00
50.6242       	0.000000e+00
50.6264       	0.000000e+00
50.6288       	0.000000e+00
50.6312       	0.000000e+00
50.6332       	0.000000e+00
50.635        	0.000000e+00
50.6367       	0.000000e+00
50.6384       	0.000000e+00
50.6403       	0.000000e+00
50.6424       	0.000000e+00
50.6444       	0.000000e+00
50.6464       	0.000000e+00
50.6484       	0.000000e+00
50.6506       	0.000000e+00
50.6528       	0.000000e+00
50.655        	0.000000e+00
50.657        	0.000000e+00
50.6591       	0.000000e+00
50.6612       	0.000000e+00
50.6635       	0.000000e+00
50.6658       	0.000000e+00
50.6682       	0.000000e+00
50.6705       	0.000000e+00
50.6726       	0.000000e+00
50.6748       	0.000000e+00
50.677        	0.000000e+00
50.6793       	0.000000e+00
50.6816       	0.000000e+00
50.6839       	0.000000e+00
50.6863       	0.000000e+00
50.6886       	0.000000e+00
50.6907       	0.000000e+00
50.6927       	0.000000e+00
50.6947       	0.000000e+00
50.697        	0.000000e+00
50.6995       	0.000000e+00
50.7016       	0.000000e+00
50.7036       	0.000000e+00
50.7057       	0.000000e+00
50.7079       	0.000000e+00
50.7101       	0.000000e+00
50.7122       	0.000000e+00
50.7142       	0.000000e+00
50.7161       	0.000000e+00
50.7183       	0.000000e+00
50.7205       	0.000000e+00
50.7226       	0.000000e+00
50.7245       	0.000000e+00
50.7264       	0.000000e+00
50.7283       	0.000000e+00
50.7302       	0.000000e+00
50.7322       	0.000000e+00
50.7344       	0.000000e+00
50.7366       	0.000000e+00
50.739        	0.000000e+00
50.741        	0.000000e+00
50.7429       	0.000000e+00
50.7447       	0.000000e+00
50.7466       	0.000000e+00
50.7484       	0.000000e+00
50.7502       	0.000000e+00
50.7522       	0.000000e+00
50.7542       	0.000000e+00
50.7561       	0.000000e+00
50.7579       	0.000000e+00
50.7598       	0.000000e+00
50.7619       	0.000000e+00
50.7641       	0.000000e+00
50.7663       	0.000000e+00
50.7685       	0.000000e+00
50.7707       	0.000000e+00
50.773        	0.000000e+00
50.7753       	0.000000e+00
50.7776       	0.000000e+00
50.78         	0.000000e+00
50.7823       	0.000000e+00
50.7847       	0.000000e+00
50.7871       	0.000000e+00
50.7894       	0.000000e+00
50.7917       	0.000000e+00
50.794        	0.000000e+00
50.7964       	0.000000e+00
50.7988       	0.000000e+00
50.8012       	0.000000e+00
50.8036       	0.000000e+00
50.806        	0.000000e+00
50.8085       	0.000000e+00
50.811        	0.000000e+00
50.8132       	0.000000e+00
50.8154       	0.000000e+00
50.8174       	0.000000e+00
50.8196       	0.000000e+00
50.8219       	0.000000e+00
50.8241       	0.000000e+00
50.8262       	0.000000e+00
50.8283       	0.000000e+00
50.8303       	0.000000e+00
50.8324       	0.000000e+00
50.8347       	0.000000e+00
50.8368       	0.000000e+00
50.8387       	0.000000e+00
50.8407       	0.000000e+00
50.8427       	0.000000e+00
50.8446       	0.000000e+00
50.8466       	0.000000e+00
50.8488       	0.000000e+00
50.8512       	0.000000e+00
50.8534       	0.000000e+00
50.8554       	0.000000e+00
50.8573       	0.000000e+00
50.8592       	0.000000e+00
50.8611       	0.000000e+00
50.863        	0.000000e+00
50.8649       	0.000000e+00
50.867        	0.000000e+00
50.8691       	0.000000e+00
50.8714       	0.000000e+00