# Region type : patch Air
# Faces  :    12879
# Area   :    3.839820e+02
# Time        	sum(phi)
0             	0.000000e+00
